Compound,LogKp,MW,LogP,HBD,HBA,LogS,TPSA,MV
2-Amino-4-Nitrophenol,-8.079,154.125,0.781,2,4,-1.539,89.39,126.68
2-Nitro-p-Phenylenediamine,-6.857,153.141,0.905,2,4,-1.772,95.18,129.96
4-Amino-2-Nitrophenol,-7.622,154.125,0.781,2,4,-1.539,89.39,126.68
4-Chloro-m-phenylenediamine,-6.234,142.59,0.919,2,2,-1.794,52.04,120.16
o-Phenylenediamine,-6.903,108.144,0.315,2,2,-0.983,52.04,106.62
p-Phenylenediamine,-7.176,108.144,0.315,2,2,-0.983,52.04,106.62