Compound,LogKp,MW,LogP,HBD,HBA,LogS,TPSA,MV
Etodolac,-5.683,287.359,3.444,2,3,-4.113,"	62.32",271.8
Famotidine,-8.345,337.44,-1.95,4,8,-1.806,175.83,262.24
Ketoprofen,-6.768,254.285,3.613,1,3,-3.854,54.37,234.83
Nimesulide,-6.551,308.31,1.787,1,4,-3.958,98.54,248.17
Nizatidine,-7.981,331.45,0.772,2,6,-1.675,83.33,293.96
Ranitidine,-7.608,314.4,0.991,2,5,-2.359,83.58,288.97